HEADER
"PSFversion" "1.00"
"Time Stamp" "Apr 14 20:58:10 2024"
TYPE
"variable" STRUCT(
"value" FLOAT DOUBLE
) PROP( "key" "element" )
VALUE
"VGS" "variable" ( 600e-3 ) PROP( )
"temp" "variable" ( 27 ) PROP( )
END
