HEADER
"PSFversion" "1.00"
"design" "(\"NMOS\" \"IV_Characteristics\" \"schematic\" \"\")"
"simulator" "spectre"
"temperature" "27"
"host" ""
"date" "Apr 14 20:58:09 2024"
"title" ""
"analysisList" "()"
END
