HEADER
"PSFversion" "1.00"
"NM0n" "gpdk045_nmos1v_spectre"
"Vgsn Vdsn" "analogLib_vdc_spectre"
